 
        ______________________________________
       |                                      |
       |           ==================         |
       |                 x T B                |
       |           ==================         |
       |               S. Grimme              |
       |        Universitaet Bonn, MCTC       |
       |         2015-18, Version 5.0         |
       |      Sat Jan 20 11:00:33 CET 2018    |
       |______________________________________|
 
        This code comes without any warranty
        for non-commercial, academia use only.
        Cite GFN-xTB work as:
        S. Grimme, C. Bannwarth, P. Shushkov
        JCTC, 13 (2017) 1989-2009
        for GFN2:
        C. Bannwarth, S. Ehlert, S. Grimme
        to be published.
        sTDA-xTB:
        S. Grimme  &  C. Bannwarth, JCP 145 (2016) 054103
        in the mass-spec context additionally:
        V. Asgeirsson, C.Bauer, S. Grimme, Chem. Sci. 8 (2017) 4879
 
        with help from
        P. Shushkov, G. Brandenburg, S. Dohm, J. Pisarek,
        F. März, M. Checinski, S. Ehrlich, S. Spicher, 
        P. Pracht, E. Caldeweyher, S. Ehlert, and C. Bannwarth.
 
        usage        :
        xtb <coord_file> [options]
        where <coord_file> is a valid file of TM)
        (*coord, Bohr) or xmol (*xyz, Angstroem)
        format.

        options:
        -chrg <int>   : molecular charge
        -uhf  <int>   : # of unpaired electrons(=2*S)
        -nox          : skip second, extended part in sTDA-xTB
        -pop          : do population analysis
                      : (default for -nox)
        -mowr <real>  : cut MO write above (def.3 Eh)
        -molden       : write formatted molden file
        -parx <file>  : read parameters for sTDA-xTB
                        calc (def:~/.param_stda2.xtb)
        -parv <file>  : read parameters for vTB part in
                        sTDA-xTB (def: ~/.param_stda1.xtb)
        -xtemp <real> : el. temp for xTB (def. 0 K)
        -etemp <real> : el. temp for GFN (def. 300 K)
        -fod          : do a xTB calc. of the FOD
                        and write molden.input file 
                        with appropriate occupations
                        for plotting. Def. T=12500 K
 
        -gfn          : use GFN-xTB
        -grad         : GFN-xTB gradient
        -acc <real>   : GFN-xTB accuracy (def. 1.0)
        -opt [level]  : optimize at GFN-xTB
                      : level=crude,vloose,loose,
                      :       tight,vtight
        -hess         : compute Hessian at GFN-xTB
        -ohess        : optimize and compute Hessian
        -omd          : optimize and do MD
        -siman        : conformational search
        -screen       : opt. loop over ensemble
        -gmd          : annealed MD for GMD procedure
        -modef        : vib mode following
        -gbsa [string1] [string2]
                        use GBSA implicit solvent
                        for solvent [string1] and
                        solvation state [string2]=
                        reference, bar1M (default=1M)
        additional GFN/opt/MD/siman options read from
        $XTBHOME/.xtbrc or $set in coordinate file
 
       spin and charge state information can be on:
       <.CHRG> (charge) and <.UHF> (=nalpha-nbeta)
       -uhf and -chrg override the file info.
       useful machine settings:
       setenv MKL_NUM_THREADS <NCORE_ON_YOUR_MACHINE>
       setenv OMP_STACKSIZE 500m
       limit stacksize unlimited
 
       total energies in Eh, gaps/HL energies in eV
       please read REVISION and HOWTO files carefully
 =============================
  # OMP threads =                     1
 =============================
 
 xtbhome directory:/Applications/xtb/
 
 argument                      1 :-omd
 
 number of atoms            :    37
 number of electrons        :   126
 charge                     :  0
 spin                       : 0.0
 first test random number   :  0.5008
 
 
KAB for pair M(3d)-M(3d) :  1.1000
KAB for pair M(4d)-M(4d) :  1.2000
KAB for pair M(5d)-M(5d) :  1.2000
 -----------------------------------------
  G F N (Geometry, Frequency, Non-covalent)
        parametrization, version                     2
 /Applications/xtb/.param_gfn2.xtb
 -----------------------------------------
      method parameters     
 k(s)        :  1.8500
 k(p)        :  2.2500
 k(d)        :  2.0000
 k(f)        :  0.0000
 alphaj      :  1.0000
 kEN (H0ij)  : -2.3620
 D3 a1       :  0.6900
 D3 a2       :  4.0530
 D3 s8       :  2.0000
 D3atm       :  1.0000
 AESdamp     :  5.5000
 AESrad      :  1.9230
 expscalexp  : -0.2500
 
     -------------------------
     ! NO SOLVENT MODEL USED !
     -------------------------
 
 doing EN charges ...
 sum q : -0.4440892D-15
 point charge moment (au)
     X       Y       Z   
   0.0000   0.0000  -0.0000  total (Debye):    0.000
 
            Z      q(EN)   CN      Cart. coordinates
     1  C   4.0    0.22    4.35     2.38162    -2.99518     0.00000
     2  C   4.0    0.22    4.35    -2.38162     2.99518     0.00000
     3  C   4.0    0.22    4.35    -0.59202    -3.78038     0.00000
     4  C   4.0    0.22    4.35     0.59202     3.78038     0.00000
     5  N   5.0   -0.19    3.19    -1.51302    -2.80932    -2.39296
     6  N   5.0   -0.19    3.19     1.51302     2.80931     2.39296
     7  N   5.0   -0.19    3.19    -1.51302    -2.80931     2.39296
     8  N   5.0   -0.19    3.19     1.51302     2.80932    -2.39296
     9  N   5.0   -0.19    3.19     2.70341    -1.69613    -2.39301
    10  N   5.0   -0.19    3.19    -2.70341     1.69613     2.39301
    11  N   5.0   -0.19    3.19     2.70341    -1.69613     2.39301
    12  N   5.0   -0.19    3.19    -2.70341     1.69613    -2.39301
    13  C   4.0    0.48    3.40     0.63386    -2.39973    -3.93943
    14  C   4.0    0.48    3.40    -0.63386     2.39972     3.93943
    15  C   4.0    0.48    3.40     0.63386    -2.39972     3.93943
    16  C   4.0    0.48    3.40    -0.63386     2.39973    -3.93943
    17  O   6.0   -0.38    1.06     0.66289    -2.50949    -6.18457
    18  O   6.0   -0.38    1.06    -0.66289     2.50949     6.18457
    19  O   6.0   -0.38    1.06     0.66289    -2.50949     6.18457
    20  O   6.0   -0.38    1.06    -0.66289     2.50949    -6.18457
    21  C   4.0    0.25    4.18    -3.49109    -0.92209    -2.87116
    22  C   4.0    0.25    4.18     3.49109     0.92209     2.87116
    23  C   4.0    0.25    4.18    -3.49109    -0.92209     2.87116
    24  C   4.0    0.25    4.18     3.49109     0.92209    -2.87116
    25  H   1.0   -0.06    1.00    -0.79188    -5.84135     0.00000
    26  H   1.0   -0.06    1.00     0.79188     5.84135     0.00000
    27  H   1.0   -0.06    1.00     3.57281    -4.68887     0.00000
    28  H   1.0   -0.06    1.00    -3.57282     4.68887     0.00000
    29  H   1.0   -0.06    1.00    -5.21737    -1.37808    -1.85905
    30  H   1.0   -0.06    1.00     5.21737     1.37808     1.85905
    31  H   1.0   -0.06    1.00    -5.21737    -1.37808     1.85905
    32  H   1.0   -0.06    1.00     5.21737     1.37808    -1.85905
    33  H   1.0   -0.05    1.01    -3.84915    -1.01658    -4.90597
    34  H   1.0   -0.05    1.01     3.84915     1.01657     4.90597
    35  H   1.0   -0.05    1.01    -3.84915    -1.01657     4.90597
    36  H   1.0   -0.05    1.01     3.84915     1.01658    -4.90597
    37  HE  2.0   -0.08    0.30     0.00001     0.00000    -0.00005
 
  Z AO/shell   Hii/eV     exponent
  1     Sat Jan 20 17:55:17 CET 2018    EN: 2.200 GAM: 0.531  GM3:-0.4370
     1s    -10.248275    1.266496
  2     Sun Jan 21 00:02:32 CET 2018    EN: 3.000 GAM: 0.420  GM3:-0.3880
     1s    -20.299815    1.657029
     2p      1.788682    1.820207
  6     Sat Jan 20 17:55:17 CET 2018    EN: 2.550 GAM: 0.417  GM3:-0.0654
     2s    -15.292509    2.030071
     2p    -10.408465    1.801676
  7     Sat Jan 20 17:55:17 CET 2018    EN: 3.040 GAM: 0.444  GM3:-0.1301
     2s    -16.687725    2.226550
     2p    -13.175143    1.981921
  8     Sat Jan 20 17:55:17 CET 2018    EN: 3.440 GAM: 0.468  GM3: 0.0937
     2s    -20.924998    2.442614
     2p    -15.243501    2.233841
 no old-style atom pair restraing (fixing) potential
 
 molecular fragmentation (1/2 indicates fragments):
1111111111111111111111111111111111112
# atoms in fragment 1/2:    36     1
 fragment masses (1/2) :      332.28        4.00
CMA distance (Bohr)    :   0.000
constraining FC (au)   :  0.0500
 
             =======================================
             |                                     |
             |        S C C  calculation           |
             |                                     |
             =======================================
 #proc     :                      1
 Ncao      :                    112
 Nao       :                    112
 Nel       :                    126
 T(el)     :   300.0
 intcut    :    25.0
 scfconv   :  0.100E-05
   qconv   :  0.200E-04
 intneglect:  0.100E-07
 broydamp  :      0.400
 Nshell    :                     62
 iter      E             dE          RMSdq      gap      omega  full diag
   1    -75.1191611 -0.751192E+02  0.979E+00    3.53       0.0  T
   2    -75.4344134 -0.315252E+00  0.530E+00    3.53       1.0  T
   3    -75.4099773  0.244361E-01  0.246E+00    3.18       1.0  T
   4    -75.4906657 -0.806884E-01  0.567E-01    3.52       1.0  T
   5    -75.4940634 -0.339767E-02  0.206E-01    3.51       1.0  T
   6    -75.4942103 -0.146982E-03  0.711E-02    3.46       1.0  T
   7    -75.4942691 -0.587741E-04  0.287E-02    3.48       1.0  T
   8    -75.4942779 -0.874588E-05  0.917E-03    3.48       1.8  T
   9    -75.4942788 -0.918201E-06  0.422E-03    3.48       3.9  T
  10    -75.4942788 -0.666627E-07  0.138E-03    3.48      11.9  T
  11    -75.4942789 -0.368359E-07  0.472E-04    3.48      34.8  T
  12    -75.4942789  0.170567E-08  0.289E-04    3.48      56.9  T
  13    -75.4942789 -0.294561E-08  0.526E-05    3.48     312.7  T
  14    -75.4942789 -0.555787E-10  0.294E-05    3.48     558.9  T
speedup  0.95
cpu  time for SCC    0.22 s
wall time for SCC    0.23 s

          eigenvalues
 #    :          51         52         53         54         55         56         57         58
 occ. :        2.000      2.000      2.000      2.000      2.000      2.000      2.000      2.000
 eps  :       -13.306    -11.908    -11.751    -11.609    -11.460    -11.416    -11.392    -11.281
 #    :          59         60         61         62         63         64         65         66
 occ. :        2.000      2.000      2.000      2.000      2.000      0.000      0.000      0.000
 eps  :       -11.064    -10.973    -10.921    -10.903    -10.670     -7.190     -7.166     -5.946
 #    :          67         68         69         70         71         72         73         74
 occ. :        0.000      0.000      0.000      0.000      0.000      0.000      0.000      0.000
 eps  :        -5.875     -1.981     -1.555     -1.510     -1.440     -1.079     -1.069     -0.547
 
 
 Mulliken/CM5 charges        n(s)   n(p)   n(d)
     1 C   0.03494  0.12117   1.108  2.857  0.000
     2 C   0.03494  0.12117   1.108  2.857  0.000
     3 C   0.03492  0.12115   1.108  2.857  0.000
     4 C   0.03492  0.12115   1.108  2.857  0.000
     5 N  -0.09835 -0.32170   1.204  3.894  0.000
     6 N  -0.09835 -0.32170   1.204  3.894  0.000
     7 N  -0.09835 -0.32170   1.204  3.894  0.000
     8 N  -0.09835 -0.32170   1.204  3.894  0.000
     9 N  -0.09846 -0.32178   1.204  3.894  0.000
    10 N  -0.09846 -0.32178   1.204  3.894  0.000
    11 N  -0.09846 -0.32178   1.204  3.894  0.000
    12 N  -0.09846 -0.32178   1.204  3.894  0.000
    13 C   0.25219  0.41831   1.068  2.679  0.000
    14 C   0.25219  0.41831   1.068  2.679  0.000
    15 C   0.25219  0.41831   1.068  2.679  0.000
    16 C   0.25219  0.41831   1.068  2.679  0.000
    17 O  -0.34181 -0.38155   1.730  4.612  0.000
    18 O  -0.34181 -0.38155   1.730  4.612  0.000
    19 O  -0.34181 -0.38155   1.730  4.612  0.000
    20 O  -0.34181 -0.38155   1.730  4.612  0.000
    21 C   0.03247  0.05258   1.085  2.883  0.000
    22 C   0.03247  0.05258   1.085  2.883  0.000
    23 C   0.03247  0.05258   1.085  2.883  0.000
    24 C   0.03247  0.05258   1.085  2.883  0.000
    25 H   0.05046  0.13060   0.950  0.000  0.000
    26 H   0.05045  0.13060   0.950  0.000  0.000
    27 H   0.05046  0.13061   0.950  0.000  0.000
    28 H   0.05046  0.13061   0.950  0.000  0.000
    29 H   0.06199  0.13928   0.938  0.000  0.000
    30 H   0.06199  0.13928   0.938  0.000  0.000
    31 H   0.06199  0.13928   0.938  0.000  0.000
    32 H   0.06199  0.13928   0.938  0.000  0.000
    33 H   0.08017  0.16512   0.920  0.000  0.000
    34 H   0.08017  0.16512   0.920  0.000  0.000
    35 H   0.08017  0.16512   0.920  0.000  0.000
    36 H   0.08017  0.16512   0.920  0.000  0.000
    37 HE  0.10562 -0.00809   1.990 -0.096  0.000
 
 Wiberg/Mayer (AO) data. WBOs > 0.1 written file <wbo>
 largest (>0.05) Wiberg bond orders for each atom
           total WBO             WBO to atom ...
     1  C   3.965    N    9 1.009    N   11 1.009    H   27 0.953    C    3 0.899
     2  C   3.965    N   12 1.009    N   10 1.009    H   28 0.953    C    4 0.899
     3  C   3.965    N    5 1.009    N    7 1.009    H   25 0.953    C    1 0.899
     4  C   3.965    N    8 1.009    N    6 1.009    H   26 0.953    C    2 0.899
     5  N   3.306    C   13 1.036    C    3 1.009    C   21 0.979    O   17 0.125
     6  N   3.306    C   14 1.036    C    4 1.009    C   22 0.979    O   18 0.125
     7  N   3.306    C   15 1.036    C    3 1.009    C   23 0.979    O   19 0.125
     8  N   3.306    C   16 1.036    C    4 1.009    C   24 0.979    O   20 0.125
     9  N   3.306    C   13 1.036    C    1 1.009    C   24 0.979    O   17 0.124
    10  N   3.306    C   14 1.036    C    2 1.009    C   23 0.979    O   18 0.124
    11  N   3.306    C   15 1.036    C    1 1.009    C   22 0.979    O   19 0.124
    12  N   3.306    C   16 1.036    C    2 1.009    C   21 0.979    O   20 0.124
    13  C   3.952    O   17 1.799    N    5 1.036    N    9 1.036
    14  C   3.952    O   18 1.799    N    6 1.036    N   10 1.036
    15  C   3.952    O   19 1.799    N    7 1.036    N   11 1.036
    16  C   3.952    O   20 1.799    N    8 1.036    N   12 1.036
    17  O   2.122    C   13 1.799    N    5 0.125    N    9 0.124
    18  O   2.122    C   14 1.799    N    6 0.125    N   10 0.124
    19  O   2.122    C   15 1.799    N    7 0.125    N   11 0.124
    20  O   2.122    C   16 1.799    N    8 0.125    N   12 0.124
    21  C   3.960    N    5 0.979    N   12 0.979    H   29 0.960    H   33 0.959
    22  C   3.960    N    6 0.979    N   11 0.979    H   30 0.960    H   34 0.959
    23  C   3.960    N    7 0.979    N   10 0.979    H   31 0.960    H   35 0.959
    24  C   3.960    N    8 0.979    N    9 0.979    H   32 0.960    H   36 0.959
    25  H   0.997    C    3 0.953
    26  H   0.997    C    4 0.953
    27  H   0.997    C    1 0.953
    28  H   0.997    C    2 0.953
    29  H   0.996    C   21 0.960
    30  H   0.996    C   22 0.960
    31  H   0.996    C   23 0.960
    32  H   0.996    C   24 0.960
    33  H   0.993    C   21 0.959
    34  H   0.993    C   22 0.959
    35  H   0.993    C   23 0.959
    36  H   0.993    C   24 0.959
    37  HE -0.176
 
molecular dipole:
                 x           y           z       tot (Debye)
 q only:       -0.000      -0.000       0.000
   full:       -0.000      -0.000       0.000       0.000
molecular quadrupole (traceless):
                xx          xy          yy          xz          yz          zz
 q only:       26.053       4.145      11.471      -0.000       0.000     -37.524
  q+dip:       30.112       4.299      15.009       0.000      -0.000     -45.121
   full:       29.088       3.322      17.430       0.000      -0.000     -46.517
 SCC converged in                     14  cycles
 
SCC energy    :     -75.4942789
rep           :       0.6971297
ES            :       0.0243619
AES           :       0.0327074
disp          :      -0.0507168
XB            :       0.0000000
fix           :       0.0000000
total E       :     -74.8478660
atomizationE  :       9.6213205     6037.47
(atE without considerung molecular charge,
 total energy contains solvation terms)
H-L gap (eV)  :          3.4803
 
             =======================================
             |                                     |
             |    Approximate Normal Coordinate    |
             |   Rational Function Optimization    |
             |                                     |
             =======================================
Ref. for RF algo: F.Eckert, P.Pulay, H.-J.Werner
                  J.Comput.Chem. 18 (1997) 1473.
ANC idea implemented by S. Grimme in the 2000ers (unpublished)
restraining potential by S. Ehrlich.
dumping coords to <xtbopt.coord> and <xtbopt.log
 optlevel                        -1
 Maxcycle                       200
 Maxmicro                        20
 Econv         5.000000000000000E-005
 Gconv         4.000000000000000E-003
 Maxdispl       1.00000000000000     
 Hlow          4.000000000000000E-003
 S6             20.0000000000000     
 Nvar                        105

generating ANC from model Hessian ...
 Shifting diagonal of input Hessian by   0.000000000000000E+000
 Lowest  eigenvalues of input Hessian
   -0.000000   -0.000000   -0.000000    0.000000    0.000000    0.000000
    0.008100    0.010119    0.011517    0.014667    0.015736    0.019218
    0.023417    0.026081    0.026341    0.026785    0.027075    0.030656
 Highest eigenvalues
    1.774790    1.793806    2.420651    2.421400    2.424730    2.425157
 
cpu  time for ANC gen    0.16 s
wall time for ANC gen    0.15 s
................................................................................
.............................. CYCLE    1 ......................................
................................................................................
  q data taken from xtbrestart
  CAMM data taken from xtbrestart
   1    -75.4942789 -0.754943E+02  0.194E-05    3.48       0.0  T
   2    -75.4942789 -0.132019E-10  0.901E-06    3.48    1823.8  T
   3    -75.4942789 -0.206057E-11  0.427E-06    3.48    3847.8  T
speedup  1.69
cpu  time for SCC    0.06 s
wall time for SCC    0.04 s
speedup  1.24
cpu  time for grad    0.06 s
wall time for grad    0.05 s
 E :    -74.84786596  G :  0.000188    pred/act E change:  0.000D+00 -0.333D-10
Maxdispl :   0.0027   ||displ|| :   0.0028   Lambda : -0.116D-06
Largest |displ|/coords:  0.0027 (   2)  0.0005 (   7)  0.0003 (   3)
ancopt converged in          1 cycles
total energy gain (kcal):      0.0000
================
 final structure:
================
    37
        -74.84786596
C           1.26029913837572   -1.58497957022588    0.00000046375416
C          -1.26029955778926    1.58497939953800    0.00000042414652
C          -0.31328461168880   -2.00049329201355    0.00000048992288
C           0.31328418061632    2.00049325666803    0.00000045213210
N          -0.80065826046623   -1.48662595350684   -1.26630119690487
N           0.80065777859118    1.48662513126774    1.26630177597480
N          -0.80065807510025   -1.48662527806752    1.26630193201180
N           0.80065775238733    1.48662574867820   -1.26630114824738
N           1.43058182475266   -0.89755324838541   -1.26632688254842
N          -1.43058193908858    0.89755278292189    1.26632774664626
N           1.43058136142170   -0.89755285354889    1.26632770403883
N          -1.43058219157833    0.89755322271104   -1.26632703222299
C           0.33542540531905   -1.26988048276095   -2.08465423214035
C          -0.33542553088906    1.26987975784078    2.08465513810339
C           0.33542517939701   -1.26987985381591    2.08465510938335
C          -0.33542575873728    1.26988039293577   -2.08465420975975
O           0.35078866395213   -1.32796728076054   -3.27273129614639
O          -0.35078877931217    1.32796663335676    3.27273222922329
O           0.35078851380671   -1.32796670435379    3.27273212818465
O          -0.35078892745032    1.32796720449497   -3.27273121841522
C          -1.84740740958993   -0.48794704824710   -1.51935236533899
C           1.84740713475980    0.48794701567470    1.51935376297119
C          -1.84740750484082   -0.48794716022023    1.51935392793425
C           1.84740702713173    0.48794697242883   -1.51935219601599
H          -0.41904685929660   -3.09110838131491    0.00000079823246
H           0.41904639631773    3.09110842693116    0.00000080829862
H           1.89065210862896   -2.48124577048430    0.00000078159898
H          -1.89065247704640    2.48124549793125    0.00000079217347
H          -2.76091177084128   -0.72924960912385   -0.98376676582384
H           2.76091220615411    0.72924969476370    0.98376921571724
H          -2.76091256787372   -0.72924976714718    0.98376956803991
H           2.76091141564937    0.72924950425878   -0.98376641531512
H          -2.03688435777727   -0.53794866254488   -2.59612827443932
H           2.03688291967136    0.53794826389586    2.59613002041356
H          -2.03688316947425   -0.53794832187896    2.59613014909086
H           2.03688410990456    0.53794859665473   -2.59612814888343
HE          0.00000663200313    0.00000173544853   -0.00002403579050
 
 Bond Distances (Angstroems)
 ---------------------------
C1-C3=1.6275         C1-N9=1.4509         C1-N11=1.4509        C1-H27=1.0957        C2-C4=1.6275         C2-N10=1.4509        
C2-N12=1.4509        C2-H28=1.0957        C3-C1=1.6275         C3-N5=1.4509         C3-N7=1.4509         C3-H25=1.0957        
C4-C2=1.6275         C4-N6=1.4509         C4-N8=1.4509         C4-H26=1.0957        N5-C3=1.4509         N5-C13=1.4168        
N5-C21=1.4687        N6-C4=1.4509         N6-C14=1.4168        N6-C22=1.4687        N7-C3=1.4509         N7-C15=1.4168        
N7-C23=1.4687        N8-C4=1.4509         N8-C16=1.4168        N8-C24=1.4687        N9-C1=1.4509         N9-C13=1.4169        
N9-C24=1.4688        N10-C2=1.4509        N10-C14=1.4169       N10-C23=1.4688       N11-C1=1.4509        N11-C15=1.4169       
N11-C22=1.4688       N12-C2=1.4509        N12-C16=1.4169       N12-C21=1.4688       C13-N5=1.4168        C13-N9=1.4169        
C13-O17=1.1896       C14-N6=1.4168        C14-N10=1.4169       C14-O18=1.1896       C15-N7=1.4168        C15-N11=1.4169       
C15-O19=1.1896       C16-N8=1.4168        C16-N12=1.4169       C16-O20=1.1896       O17-C13=1.1896       O18-C14=1.1896       
O19-C15=1.1896       O20-C16=1.1896       C21-N5=1.4687        C21-N12=1.4688       C21-H29=1.0861       C21-H33=1.0945       
C22-N6=1.4687        C22-N11=1.4688       C22-H30=1.0861       C22-H34=1.0945       C23-N7=1.4687        C23-N10=1.4688       
C23-H31=1.0861       C23-H35=1.0945       C24-N8=1.4687        C24-N9=1.4688        C24-H32=1.0861       C24-H36=1.0945       
H25-C3=1.0957        H26-C4=1.0957        H27-C1=1.0957        H28-C2=1.0957        H29-C21=1.0861       H30-C22=1.0861       
H31-C23=1.0861       H32-C24=1.0861       H33-C21=1.0945       H34-C22=1.0945       H35-C23=1.0945       H36-C24=1.0945       
 C  H  Rav=1.0921 sigma=0.0043  Rmin=1.0861  Rmax=1.0957    12
 C  C  Rav=1.6275 sigma=0.0000  Rmin=1.6275  Rmax=1.6275     2
 N  C  Rav=1.4455 sigma=0.0215  Rmin=1.4168  Rmax=1.4688    24
 O  C  Rav=1.1896 sigma=0.0000  Rmin=1.1896  Rmax=1.1896     4
 
 selected bond angles (degree)
 --------------------
N9-C1-C3=103.56                N11-C1-C3=103.56               N11-C1-N9=121.57               H27-C1-C3=110.33               
H27-C1-N9=108.66               H27-C1-N11=108.66              N10-C2-C4=103.56               N12-C2-C4=103.56               
N12-C2-N10=121.57              H28-C2-C4=110.33               H28-C2-N10=108.66              H28-C2-N12=108.66              
N5-C3-C1=103.55                N7-C3-C1=103.55                N7-C3-N5=121.56                H25-C3-C1=110.33               
H25-C3-N5=108.67               H25-C3-N7=108.67               N6-C4-C2=103.55                N8-C4-C2=103.55                
N8-C4-N6=121.56                H26-C4-C2=110.33               H26-C4-N6=108.67               H26-C4-N8=108.67               
C13-N5-C3=106.79               C21-N5-C3=129.09               C21-N5-C13=111.59              C14-N6-C4=106.79               
C22-N6-C4=129.10               C22-N6-C14=111.59              C15-N7-C3=106.79               C23-N7-C3=129.10               
C23-N7-C15=111.59              C16-N8-C4=106.79               C24-N8-C4=129.09               C24-N8-C16=111.59              
C13-N9-C1=106.79               C24-N9-C1=129.09               C24-N9-C13=111.58              C14-N10-C2=106.79              
C23-N10-C2=129.09              C23-N10-C14=111.58             
 
 selected dihedral angles (degree)
 ---------------------------------
N5-C3-C1-N9=  0.00            N5-C3-C1-N11=127.74           N5-C3-C1-H27=243.87           N7-C3-C1-N9=232.26            
N7-C3-C1-N11=  0.00           N7-C3-C1-H27=116.13           H25-C3-C1-N9=116.13           H25-C3-C1-N11=243.87          
H25-C3-C1-H27=  0.00          N6-C4-C2-N10=  0.00           N6-C4-C2-N12=232.26           N6-C4-C2-H28=116.13           
N8-C4-C2-N10=127.74           N8-C4-C2-N12=  0.00           N8-C4-C2-H28=243.87           H26-C4-C2-N10=243.87          
H26-C4-C2-N12=116.13          H26-C4-C2-H28=  0.00          C13-N5-C3-C1= 18.60           C13-N5-C3-N7=134.14           
C13-N5-C3-H25=261.30          C21-N5-C3-C1=240.83           C21-N5-C3-N7=356.37           C21-N5-C3-H25=123.53          
C14-N6-C4-C2=341.40           C14-N6-C4-N8=225.86           C14-N6-C4-H26= 98.70          C22-N6-C4-C2=119.17           
C22-N6-C4-N8=  3.63           C22-N6-C4-H26=236.47          C15-N7-C3-C1=341.40           C15-N7-C3-N5=225.86           
C15-N7-C3-H25= 98.70          C23-N7-C3-C1=119.17           C23-N7-C3-N5=  3.63           C23-N7-C3-H25=236.47          
C16-N8-C4-C2= 18.60           C16-N8-C4-N6=134.14           C16-N8-C4-H26=261.30          C24-N8-C4-C2=240.83           
C24-N8-C4-N6=356.37           C24-N8-C4-H26=123.53          C13-N9-C1-C3=341.40           C13-N9-C1-N11=225.86          
C13-N9-C1-H27= 98.70          C24-N9-C1-C3=119.14           C24-N9-C1-N11=  3.59          C24-N9-C1-H27=236.44          
C14-N10-C2-C4= 18.60          C14-N10-C2-N12=134.14         C14-N10-C2-H28=261.30         C23-N10-C2-C4=240.86          
C23-N10-C2-N12=356.41         C23-N10-C2-H28=123.56         
 
 CMA Distance (Angstroems)
 ---------------------------
R(CMA):  0.0000
 
             =======================================
             |                                     |
             |        S C C  calculation           |
             |                                     |
             =======================================
 #proc     :                      1
 Ncao      :                    112
 Nao       :                    112
 Nel       :                    126
 T(el)     :   300.0
 intcut    :    25.0
 scfconv   :  0.100E-05
   qconv   :  0.200E-04
 intneglect:  0.100E-07
 broydamp  :      0.400
 Nshell    :                     62
 iter      E             dE          RMSdq      gap      omega  full diag
   1    -75.4942789 -0.754943E+02  0.236E-06    3.48       0.0  T
   2    -75.4942789 -0.710543E-13  0.154E-06    3.48   10688.6  T
   3    -75.4942789 -0.852651E-13  0.100E-06    3.48   16364.5  T
speedup  1.61
cpu  time for SCC    0.05 s
wall time for SCC    0.03 s

          eigenvalues
 #    :          51         52         53         54         55         56         57         58
 occ. :        2.000      2.000      2.000      2.000      2.000      2.000      2.000      2.000
 eps  :       -13.306    -11.908    -11.751    -11.609    -11.460    -11.416    -11.392    -11.281
 #    :          59         60         61         62         63         64         65         66
 occ. :        2.000      2.000      2.000      2.000      2.000      0.000      0.000      0.000
 eps  :       -11.064    -10.973    -10.920    -10.903    -10.670     -7.190     -7.166     -5.946
 #    :          67         68         69         70         71         72         73         74
 occ. :        0.000      0.000      0.000      0.000      0.000      0.000      0.000      0.000
 eps  :        -5.875     -1.981     -1.555     -1.510     -1.440     -1.079     -1.069     -0.547
 
 
 Mulliken/CM5 charges        n(s)   n(p)   n(d)
     1 C   0.03494  0.12117   1.108  2.857  0.000
     2 C   0.03494  0.12117   1.108  2.857  0.000
     3 C   0.03492  0.12115   1.108  2.857  0.000
     4 C   0.03492  0.12115   1.108  2.857  0.000
     5 N  -0.09835 -0.32170   1.204  3.894  0.000
     6 N  -0.09835 -0.32170   1.204  3.894  0.000
     7 N  -0.09835 -0.32170   1.204  3.894  0.000
     8 N  -0.09835 -0.32170   1.204  3.894  0.000
     9 N  -0.09845 -0.32178   1.204  3.894  0.000
    10 N  -0.09845 -0.32178   1.204  3.894  0.000
    11 N  -0.09845 -0.32178   1.204  3.894  0.000
    12 N  -0.09845 -0.32178   1.204  3.894  0.000
    13 C   0.25219  0.41831   1.068  2.679  0.000
    14 C   0.25219  0.41831   1.068  2.679  0.000
    15 C   0.25219  0.41831   1.068  2.679  0.000
    16 C   0.25219  0.41831   1.068  2.679  0.000
    17 O  -0.34182 -0.38155   1.730  4.612  0.000
    18 O  -0.34182 -0.38155   1.730  4.612  0.000
    19 O  -0.34182 -0.38155   1.730  4.612  0.000
    20 O  -0.34182 -0.38155   1.730  4.612  0.000
    21 C   0.03248  0.05258   1.085  2.883  0.000
    22 C   0.03248  0.05258   1.085  2.883  0.000
    23 C   0.03248  0.05258   1.085  2.883  0.000
    24 C   0.03247  0.05258   1.085  2.883  0.000
    25 H   0.05045  0.13060   0.950  0.000  0.000
    26 H   0.05045  0.13060   0.950  0.000  0.000
    27 H   0.05046  0.13061   0.950  0.000  0.000
    28 H   0.05046  0.13061   0.950  0.000  0.000
    29 H   0.06199  0.13928   0.938  0.000  0.000
    30 H   0.06199  0.13928   0.938  0.000  0.000
    31 H   0.06199  0.13928   0.938  0.000  0.000
    32 H   0.06199  0.13928   0.938  0.000  0.000
    33 H   0.08017  0.16512   0.920  0.000  0.000
    34 H   0.08017  0.16512   0.920  0.000  0.000
    35 H   0.08017  0.16512   0.920  0.000  0.000
    36 H   0.08017  0.16512   0.920  0.000  0.000
    37 HE  0.10562 -0.00809   1.990 -0.096  0.000
 
 Wiberg/Mayer (AO) data. WBOs > 0.1 written file <wbo>
 largest (>0.05) Wiberg bond orders for each atom
           total WBO             WBO to atom ...
     1  C   3.965    N    9 1.009    N   11 1.009    H   27 0.953    C    3 0.899
     2  C   3.965    N   12 1.009    N   10 1.009    H   28 0.953    C    4 0.899
     3  C   3.965    N    5 1.009    N    7 1.009    H   25 0.953    C    1 0.899
     4  C   3.965    N    8 1.009    N    6 1.009    H   26 0.953    C    2 0.899
     5  N   3.306    C   13 1.036    C    3 1.009    C   21 0.979    O   17 0.125
     6  N   3.306    C   14 1.036    C    4 1.009    C   22 0.979    O   18 0.125
     7  N   3.306    C   15 1.036    C    3 1.009    C   23 0.979    O   19 0.125
     8  N   3.306    C   16 1.036    C    4 1.009    C   24 0.979    O   20 0.125
     9  N   3.306    C   13 1.036    C    1 1.009    C   24 0.979    O   17 0.124
    10  N   3.306    C   14 1.036    C    2 1.009    C   23 0.979    O   18 0.124
    11  N   3.306    C   15 1.036    C    1 1.009    C   22 0.979    O   19 0.124
    12  N   3.306    C   16 1.036    C    2 1.009    C   21 0.979    O   20 0.124
    13  C   3.952    O   17 1.799    N    5 1.036    N    9 1.036
    14  C   3.952    O   18 1.799    N    6 1.036    N   10 1.036
    15  C   3.952    O   19 1.799    N    7 1.036    N   11 1.036
    16  C   3.952    O   20 1.799    N    8 1.036    N   12 1.036
    17  O   2.122    C   13 1.799    N    5 0.125    N    9 0.124
    18  O   2.122    C   14 1.799    N    6 0.125    N   10 0.124
    19  O   2.122    C   15 1.799    N    7 0.125    N   11 0.124
    20  O   2.122    C   16 1.799    N    8 0.125    N   12 0.124
    21  C   3.960    N    5 0.979    N   12 0.979    H   29 0.960    H   33 0.959
    22  C   3.960    N    6 0.979    N   11 0.979    H   30 0.960    H   34 0.959
    23  C   3.960    N    7 0.979    N   10 0.979    H   31 0.960    H   35 0.959
    24  C   3.960    N    8 0.979    N    9 0.979    H   32 0.960    H   36 0.959
    25  H   0.997    C    3 0.953
    26  H   0.997    C    4 0.953
    27  H   0.997    C    1 0.953
    28  H   0.997    C    2 0.953
    29  H   0.996    C   21 0.960
    30  H   0.996    C   22 0.960
    31  H   0.996    C   23 0.960
    32  H   0.996    C   24 0.960
    33  H   0.993    C   21 0.959
    34  H   0.993    C   22 0.959
    35  H   0.993    C   23 0.959
    36  H   0.993    C   24 0.959
    37  HE -0.176
 
molecular dipole:
                 x           y           z       tot (Debye)
 q only:       -0.000      -0.000       0.000
   full:       -0.000      -0.000       0.000       0.000
molecular quadrupole (traceless):
                xx          xy          yy          xz          yz          zz
 q only:       26.053       4.145      11.471      -0.000       0.000     -37.525
  q+dip:       30.112       4.299      15.009       0.000      -0.000     -45.121
   full:       29.088       3.322      17.430       0.000      -0.000     -46.518
 SCC converged in                      3  cycles
 
SCC energy    :     -75.4942789
rep           :       0.6971297
ES            :       0.0243620
AES           :       0.0327076
disp          :      -0.0507168
XB            :       0.0000000
fix           :       0.0000000
total E       :     -74.8478660
atomizationE  :       9.6213205     6037.47
(atE without considerung molecular charge,
 total energy contains solvation terms)
H-L gap (eV)  :          3.4803
 !!!!!!!!!!!!!!!!!!!!!!!!!!!!!!!!!!!
 ! Note: the input coordinates are !
 ! NOT overwritten. The optimized  !
 ! ones are on file <xtbopt.coord> !
 ! (or on <xtbopt.xyz> if it was a !
 ! xyz file)                       !
 !!!!!!!!!!!!!!!!!!!!!!!!!!!!!!!!!!!
             =======================================
             |                                     |
             |        Molecular Dynamics           |
             |                                     |
             =======================================
 trajectories on xtb.trj or xtb.trj.<n>
 
 MD time /ps        :  100.00
 dt /fs             :    4.00
 SCC accuracy       :    1.00
 temperature /K     :  298.15
 max steps          : 25000
 block length (av.) :   875
 dumpstep(trj) /fs  :   50.00    12
 dumpstep(coords)/fs: 1000.00   250
 H atoms mass (amu) :     4
 # deg. of freedom  :    69
 SHAKE on. # bonds  :                    42  all: T
 Berendsen THERMOSTAT on
         time (ps)    <Epot>      Ekin   <T>   T     Etot
  q data taken from xtbrestart
  CAMM data taken from xtbrestart
      0    0.00      0.00000   0.0643    0.    0.   -74.78360
est. speed in wall clock h for 100 ps :  0.86
    200    0.80    -74.45031   0.0285  224.  261.   -74.79263
    400    1.60    -74.63366   0.0319  245.  292.   -74.78863
    600    2.40    -74.69428   0.0303  257.  277.   -74.78545
    800    3.20    -74.72442   0.0360  266.  330.   -74.78375
block <Epot> / <T> :     -74.81755  268.     drift:  0.99D+02   Tbath : 298.
   1000    4.00    -74.74241   0.0328  272.  300.   -74.78814
   1200    4.80    -74.75438   0.0298  276.  273.   -74.78386
   1400    5.60    -74.76289   0.0362  279.  332.   -74.77987
   1600    6.40    -74.76930   0.0301  281.  275.   -74.78511
block <Epot> / <T> :     -74.81419  297.     drift:  0.99D+02   Tbath : 298.
   1800    7.20    -74.77427   0.0365  283.  334.   -74.78883
   2000    8.00    -74.77825   0.0315  285.  289.   -74.78865
   2200    8.80    -74.78152   0.0334  286.  306.   -74.78367
   2400    9.60    -74.78424   0.0316  287.  290.   -74.78130
   2600   10.40    -74.78655   0.0304  288.  278.   -74.78336
block <Epot> / <T> :     -74.81417  298.     drift:  0.99D+02   Tbath : 298.
   2800   11.20    -74.78852   0.0328  289.  300.   -74.78295
   3000   12.00    -74.79022   0.0371  289.  339.   -74.78316
   3200   12.80    -74.79172   0.0396  290.  362.   -74.77911
   3400   13.60    -74.79304   0.0315  290.  289.   -74.77584
block <Epot> / <T> :     -74.81413  298.     drift:  0.10D-02   Tbath : 298.
   3600   14.40    -74.79420   0.0290  291.  266.   -74.78280
   3800   15.20    -74.79525   0.0309  291.  283.   -74.78212
   4000   16.00    -74.79620   0.0340  291.  311.   -74.78496
   4200   16.80    -74.79706   0.0333  292.  305.   -74.78067
block <Epot> / <T> :     -74.81418  298.     drift:  0.60D-05   Tbath : 298.
   4400   17.60    -74.79783   0.0352  292.  322.   -74.78394
   4600   18.40    -74.79854   0.0346  292.  317.   -74.77980
   4800   19.20    -74.79919   0.0239  292.  219.   -74.78375
   5000   20.00    -74.79978   0.0413  293.  378.   -74.78102
   5200   20.80    -74.80033   0.0318  293.  291.   -74.77976
block <Epot> / <T> :     -74.81405  298.     drift:  0.29D-04   Tbath : 298.
   5400   21.60    -74.80084   0.0387  293.  355.   -74.77462
   5600   22.40    -74.80132   0.0345  293.  316.   -74.77902
   5800   23.20    -74.80176   0.0372  293.  341.   -74.78139
   6000   24.00    -74.80217   0.0322  294.  295.   -74.77834
block <Epot> / <T> :     -74.81417  298.     drift:  0.93D-06   Tbath : 298.
   6200   24.80    -74.80256   0.0386  294.  353.   -74.77181
   6400   25.60    -74.80292   0.0308  294.  282.   -74.78142
   6600   26.40    -74.80325   0.0287  294.  263.   -74.78329
   6800   27.20    -74.80357   0.0345  294.  316.   -74.78346
   7000   28.00    -74.80388   0.0310  294.  284.   -74.78236
block <Epot> / <T> :     -74.81412  298.     drift:  0.67D-05   Tbath : 298.
   7200   28.80    -74.80417   0.0322  294.  295.   -74.78289
   7400   29.60    -74.80445   0.0281  294.  257.   -74.77482
   7600   30.40    -74.80470   0.0273  295.  250.   -74.78462
   7800   31.20    -74.80495   0.0347  295.  318.   -74.78037
block <Epot> / <T> :     -74.81432  298.     drift: -0.75D-04   Tbath : 298.
   8000   32.00    -74.80518   0.0313  295.  287.   -74.78390
   8200   32.80    -74.80540   0.0310  295.  283.   -74.78233
   8400   33.60    -74.80561   0.0287  295.  263.   -74.78077
   8600   34.40    -74.80581   0.0335  295.  307.   -74.77592
block <Epot> / <T> :     -74.81411  297.     drift: -0.12D-05   Tbath : 298.
   8800   35.20    -74.80599   0.0279  295.  256.   -74.78544
   9000   36.00    -74.80617   0.0350  295.  320.   -74.77856
   9200   36.80    -74.80634   0.0322  295.  295.   -74.77917
   9400   37.60    -74.80650   0.0363  295.  332.   -74.77984
   9600   38.40    -74.80666   0.0301  295.  275.   -74.77738
block <Epot> / <T> :     -74.81403  298.     drift:  0.49D-04   Tbath : 298.
   9800   39.20    -74.80681   0.0340  295.  311.   -74.78263
  10000   40.00    -74.80696   0.0324  295.  297.   -74.78112
  10200   40.80    -74.80709   0.0303  295.  278.   -74.78952
  10400   41.60    -74.80723   0.0296  295.  270.   -74.78374
block <Epot> / <T> :     -74.81399  298.     drift:  0.10D-03   Tbath : 298.
  10600   42.40    -74.80735   0.0230  295.  211.   -74.79129
  10800   43.20    -74.80747   0.0320  296.  293.   -74.77298
  11000   44.00    -74.80759   0.0293  296.  268.   -74.78003
  11200   44.80    -74.80771   0.0354  296.  324.   -74.77689
block <Epot> / <T> :     -74.81393  298.     drift:  0.57D-04   Tbath : 298.
  11400   45.60    -74.80781   0.0255  296.  233.   -74.78145
  11600   46.40    -74.80792   0.0340  296.  311.   -74.78361
  11800   47.20    -74.80802   0.0328  296.  300.   -74.78341
  12000   48.00    -74.80813   0.0311  296.  285.   -74.78145
  12200   48.80    -74.80822   0.0306  296.  280.   -74.78818
block <Epot> / <T> :     -74.81409  298.     drift: -0.11D-04   Tbath : 298.
  12400   49.60    -74.80832   0.0319  296.  292.   -74.77956
  12600   50.40    -74.80841   0.0284  296.  260.   -74.78174
  12800   51.20    -74.80850   0.0326  296.  298.   -74.78454
  13000   52.00    -74.80859   0.0326  296.  299.   -74.78100
block <Epot> / <T> :     -74.81411  298.     drift: -0.52D-04   Tbath : 298.
  13200   52.80    -74.80867   0.0379  296.  347.   -74.77868
  13400   53.60    -74.80875   0.0322  296.  295.   -74.77929
  13600   54.40    -74.80883   0.0310  296.  284.   -74.78089
  13800   55.20    -74.80891   0.0333  296.  305.   -74.78019
  14000   56.00    -74.80898   0.0343  296.  314.   -74.78585
block <Epot> / <T> :     -74.81416  298.     drift: -0.74D-04   Tbath : 298.
  14200   56.80    -74.80906   0.0324  296.  297.   -74.78553
  14400   57.60    -74.80913   0.0237  296.  217.   -74.78925
  14600   58.40    -74.80920   0.0207  296.  190.   -74.78515
  14800   59.20    -74.80926   0.0300  296.  275.   -74.78694
block <Epot> / <T> :     -74.81405  298.     drift:  0.54D-05   Tbath : 298.
  15000   60.00    -74.80932   0.0359  296.  329.   -74.77957
  15200   60.80    -74.80938   0.0380  296.  347.   -74.78028
  15400   61.60    -74.80944   0.0313  296.  286.   -74.77849
  15600   62.40    -74.80950   0.0301  296.  276.   -74.78787
block <Epot> / <T> :     -74.81395  298.     drift:  0.59D-04   Tbath : 298.
  15800   63.20    -74.80956   0.0306  296.  280.   -74.77998
  16000   64.00    -74.80961   0.0357  296.  327.   -74.78153
  16200   64.80    -74.80966   0.0398  296.  364.   -74.77477
  16400   65.60    -74.80971   0.0381  296.  349.   -74.77730
  16600   66.40    -74.80977   0.0363  296.  332.   -74.77927
block <Epot> / <T> :     -74.81389  298.     drift:  0.93D-04   Tbath : 298.
  16800   67.20    -74.80982   0.0385  296.  352.   -74.77805
  17000   68.00    -74.80987   0.0344  296.  315.   -74.77964
  17200   68.80    -74.80991   0.0350  296.  321.   -74.78368
  17400   69.60    -74.80996   0.0301  296.  275.   -74.78265
block <Epot> / <T> :     -74.81400  298.     drift:  0.21D-04   Tbath : 298.
  17600   70.40    -74.81001   0.0364  296.  334.   -74.78382
  17800   71.20    -74.81005   0.0325  297.  297.   -74.78279
  18000   72.00    -74.81010   0.0265  297.  242.   -74.78855
  18200   72.80    -74.81014   0.0317  297.  291.   -74.78523
block <Epot> / <T> :     -74.81402  298.     drift: -0.31D-04   Tbath : 298.
  18400   73.60    -74.81018   0.0309  297.  283.   -74.78576
  18600   74.40    -74.81022   0.0283  297.  259.   -74.78948
  18800   75.20    -74.81026   0.0348  297.  319.   -74.78638
  19000   76.00    -74.81030   0.0395  297.  362.   -74.77842
  19200   76.80    -74.81034   0.0229  297.  210.   -74.78514
block <Epot> / <T> :     -74.81413  298.     drift: -0.73D-04   Tbath : 298.
  19400   77.60    -74.81038   0.0333  297.  304.   -74.78326
  19600   78.40    -74.81042   0.0333  297.  304.   -74.78242
  19800   79.20    -74.81046   0.0299  297.  273.   -74.78377
  20000   80.00    -74.81049   0.0268  297.  245.   -74.78123
block <Epot> / <T> :     -74.81404  298.     drift: -0.23D-04   Tbath : 298.
  20200   80.80    -74.81053   0.0335  297.  307.   -74.78457
  20400   81.60    -74.81056   0.0285  297.  261.   -74.78802
  20600   82.40    -74.81060   0.0353  297.  324.   -74.77912
  20800   83.20    -74.81063   0.0349  297.  320.   -74.77801
  21000   84.00    -74.81067   0.0308  297.  282.   -74.78077
block <Epot> / <T> :     -74.81423  299.     drift: -0.55D-04   Tbath : 298.
  21200   84.80    -74.81070   0.0371  297.  339.   -74.78238
  21400   85.60    -74.81074   0.0278  297.  255.   -74.78028
  21600   86.40    -74.81077   0.0368  297.  337.   -74.77983
  21800   87.20    -74.81080   0.0362  297.  331.   -74.77586
block <Epot> / <T> :     -74.81416  298.     drift: -0.30D-04   Tbath : 298.
  22000   88.00    -74.81083   0.0288  297.  263.   -74.77732
  22200   88.80    -74.81086   0.0381  297.  349.   -74.78051
  22400   89.60    -74.81089   0.0220  297.  202.   -74.78415
  22600   90.40    -74.81092   0.0306  297.  280.   -74.77840
block <Epot> / <T> :     -74.81414  298.     drift: -0.24D-04   Tbath : 298.
  22800   91.20    -74.81094   0.0293  297.  268.   -74.78435
  23000   92.00    -74.81097   0.0299  297.  274.   -74.78198
  23200   92.80    -74.81100   0.0342  297.  313.   -74.78017
  23400   93.60    -74.81102   0.0309  297.  283.   -74.78459
  23600   94.40    -74.81105   0.0356  297.  326.   -74.78168
block <Epot> / <T> :     -74.81400  298.     drift:  0.69D-04   Tbath : 298.
  23800   95.20    -74.81107   0.0319  297.  292.   -74.79129
  24000   96.00    -74.81110   0.0363  297.  332.   -74.77929
  24200   96.80    -74.81112   0.0371  297.  340.   -74.78146
  24400   97.60    -74.81114   0.0325  297.  298.   -74.77716
block <Epot> / <T> :     -74.81395  298.     drift:  0.78D-04   Tbath : 298.
  24600   98.40    -74.81117   0.0260  297.  238.   -74.78440
  24800   99.20    -74.81119   0.0293  297.  268.   -74.78838
 average properties 
 Epot               :  -74.8112118645254     
 Epot (accurate SCC):  -74.8140611909676     
 Ekin               :  3.244325400284426E-002
 Etot               :  -74.7787686105226     
 T                  :   296.949485100935     
 normal exit of md()
 
speedup  1.42
cpu  time for all   58 m 13.1 s
wall time for all   40 m 54.8 s
